 TITLE="Tecplot Output"
 VARIABLES= "X" "Y" "Z" "VAR"
 ZONE F=POINT T="Rank 00" I=           5  J=           3  ,K=          11
           1           1           1   1.00000000000000     
           2           1           1   2.00000000000000     
           3           1           1   3.00000000000000     
           4           1           1   4.00000000000000     
           5           1           1   5.00000000000000     
           1           2           1   18.0000000000000     
           2           2           1   19.0000000000000     
           3           2           1   20.0000000000000     
           4           2           1   21.0000000000000     
           5           2           1   22.0000000000000     
           1           3           1   35.0000000000000     
           2           3           1   36.0000000000000     
           3           3           1   37.0000000000000     
           4           3           1   38.0000000000000     
           5           3           1   39.0000000000000     
           1           1           2   222.000000000000     
           2           1           2   223.000000000000     
           3           1           2   224.000000000000     
           4           1           2   225.000000000000     
           5           1           2   226.000000000000     
           1           2           2   239.000000000000     
           2           2           2   240.000000000000     
           3           2           2   241.000000000000     
           4           2           2   242.000000000000     
           5           2           2   243.000000000000     
           1           3           2   256.000000000000     
           2           3           2   257.000000000000     
           3           3           2   258.000000000000     
           4           3           2   259.000000000000     
           5           3           2   260.000000000000     
           1           1           3   443.000000000000     
           2           1           3   444.000000000000     
           3           1           3   445.000000000000     
           4           1           3   446.000000000000     
           5           1           3   447.000000000000     
           1           2           3   460.000000000000     
           2           2           3   461.000000000000     
           3           2           3   462.000000000000     
           4           2           3   463.000000000000     
           5           2           3   464.000000000000     
           1           3           3   477.000000000000     
           2           3           3   478.000000000000     
           3           3           3   479.000000000000     
           4           3           3   480.000000000000     
           5           3           3   481.000000000000     
           1           1           4   664.000000000000     
           2           1           4   665.000000000000     
           3           1           4   666.000000000000     
           4           1           4   667.000000000000     
           5           1           4   668.000000000000     
           1           2           4   681.000000000000     
           2           2           4   682.000000000000     
           3           2           4   683.000000000000     
           4           2           4   684.000000000000     
           5           2           4   685.000000000000     
           1           3           4   698.000000000000     
           2           3           4   699.000000000000     
           3           3           4   700.000000000000     
           4           3           4   701.000000000000     
           5           3           4   702.000000000000     
           1           1           5   885.000000000000     
           2           1           5   886.000000000000     
           3           1           5   887.000000000000     
           4           1           5   888.000000000000     
           5           1           5   889.000000000000     
           1           2           5   902.000000000000     
           2           2           5   903.000000000000     
           3           2           5   904.000000000000     
           4           2           5   905.000000000000     
           5           2           5   906.000000000000     
           1           3           5   919.000000000000     
           2           3           5   920.000000000000     
           3           3           5   921.000000000000     
           4           3           5   922.000000000000     
           5           3           5   923.000000000000     
           1           1           6   1106.00000000000     
           2           1           6   1107.00000000000     
           3           1           6   1108.00000000000     
           4           1           6   1109.00000000000     
           5           1           6   1110.00000000000     
           1           2           6   1123.00000000000     
           2           2           6   1124.00000000000     
           3           2           6   1125.00000000000     
           4           2           6   1126.00000000000     
           5           2           6   1127.00000000000     
           1           3           6   1140.00000000000     
           2           3           6   1141.00000000000     
           3           3           6   1142.00000000000     
           4           3           6   1143.00000000000     
           5           3           6   1144.00000000000     
           1           1           7   1327.00000000000     
           2           1           7   1328.00000000000     
           3           1           7   1329.00000000000     
           4           1           7   1330.00000000000     
           5           1           7   1331.00000000000     
           1           2           7   1344.00000000000     
           2           2           7   1345.00000000000     
           3           2           7   1346.00000000000     
           4           2           7   1347.00000000000     
           5           2           7   1348.00000000000     
           1           3           7   1361.00000000000     
           2           3           7   1362.00000000000     
           3           3           7   1363.00000000000     
           4           3           7   1364.00000000000     
           5           3           7   1365.00000000000     
           1           1           8   1548.00000000000     
           2           1           8   1549.00000000000     
           3           1           8   1550.00000000000     
           4           1           8   1551.00000000000     
           5           1           8   1552.00000000000     
           1           2           8   1565.00000000000     
           2           2           8   1566.00000000000     
           3           2           8   1567.00000000000     
           4           2           8   1568.00000000000     
           5           2           8   1569.00000000000     
           1           3           8   1582.00000000000     
           2           3           8   1583.00000000000     
           3           3           8   1584.00000000000     
           4           3           8   1585.00000000000     
           5           3           8   1586.00000000000     
           1           1           9   1769.00000000000     
           2           1           9   1770.00000000000     
           3           1           9   1771.00000000000     
           4           1           9   1772.00000000000     
           5           1           9   1773.00000000000     
           1           2           9   1786.00000000000     
           2           2           9   1787.00000000000     
           3           2           9   1788.00000000000     
           4           2           9   1789.00000000000     
           5           2           9   1790.00000000000     
           1           3           9   1803.00000000000     
           2           3           9   1804.00000000000     
           3           3           9   1805.00000000000     
           4           3           9   1806.00000000000     
           5           3           9   1807.00000000000     
           1           1          10   1990.00000000000     
           2           1          10   1991.00000000000     
           3           1          10   1992.00000000000     
           4           1          10   1993.00000000000     
           5           1          10   1994.00000000000     
           1           2          10   2007.00000000000     
           2           2          10   2008.00000000000     
           3           2          10   2009.00000000000     
           4           2          10   2010.00000000000     
           5           2          10   2011.00000000000     
           1           3          10   2024.00000000000     
           2           3          10   2025.00000000000     
           3           3          10   2026.00000000000     
           4           3          10   2027.00000000000     
           5           3          10   2028.00000000000     
           1           1          11   2211.00000000000     
           2           1          11   2212.00000000000     
           3           1          11   2213.00000000000     
           4           1          11   2214.00000000000     
           5           1          11   2215.00000000000     
           1           2          11   2228.00000000000     
           2           2          11   2229.00000000000     
           3           2          11   2230.00000000000     
           4           2          11   2231.00000000000     
           5           2          11   2232.00000000000     
           1           3          11   2245.00000000000     
           2           3          11   2246.00000000000     
           3           3          11   2247.00000000000     
           4           3          11   2248.00000000000     
           5           3          11   2249.00000000000     
 ZONE F=POINT T="Rank 01" I=           6  J=           3  ,K=          11
           6           1           1   6.00000000000000     
           7           1           1   7.00000000000000     
           8           1           1   8.00000000000000     
           9           1           1   9.00000000000000     
          10           1           1   10.0000000000000     
          11           1           1   11.0000000000000     
           6           2           1   23.0000000000000     
           7           2           1   24.0000000000000     
           8           2           1   25.0000000000000     
           9           2           1   26.0000000000000     
          10           2           1   27.0000000000000     
          11           2           1   28.0000000000000     
           6           3           1   40.0000000000000     
           7           3           1   41.0000000000000     
           8           3           1   42.0000000000000     
           9           3           1   43.0000000000000     
          10           3           1   44.0000000000000     
          11           3           1   45.0000000000000     
           6           1           2   227.000000000000     
           7           1           2   228.000000000000     
           8           1           2   229.000000000000     
           9           1           2   230.000000000000     
          10           1           2   231.000000000000     
          11           1           2   232.000000000000     
           6           2           2   244.000000000000     
           7           2           2   245.000000000000     
           8           2           2   246.000000000000     
           9           2           2   247.000000000000     
          10           2           2   248.000000000000     
          11           2           2   249.000000000000     
           6           3           2   261.000000000000     
           7           3           2   262.000000000000     
           8           3           2   263.000000000000     
           9           3           2   264.000000000000     
          10           3           2   265.000000000000     
          11           3           2   266.000000000000     
           6           1           3   448.000000000000     
           7           1           3   449.000000000000     
           8           1           3   450.000000000000     
           9           1           3   451.000000000000     
          10           1           3   452.000000000000     
          11           1           3   453.000000000000     
           6           2           3   465.000000000000     
           7           2           3   466.000000000000     
           8           2           3   467.000000000000     
           9           2           3   468.000000000000     
          10           2           3   469.000000000000     
          11           2           3   470.000000000000     
           6           3           3   482.000000000000     
           7           3           3   483.000000000000     
           8           3           3   484.000000000000     
           9           3           3   485.000000000000     
          10           3           3   486.000000000000     
          11           3           3   487.000000000000     
           6           1           4   669.000000000000     
           7           1           4   670.000000000000     
           8           1           4   671.000000000000     
           9           1           4   672.000000000000     
          10           1           4   673.000000000000     
          11           1           4   674.000000000000     
           6           2           4   686.000000000000     
           7           2           4   687.000000000000     
           8           2           4   688.000000000000     
           9           2           4   689.000000000000     
          10           2           4   690.000000000000     
          11           2           4   691.000000000000     
           6           3           4   703.000000000000     
           7           3           4   704.000000000000     
           8           3           4   705.000000000000     
           9           3           4   706.000000000000     
          10           3           4   707.000000000000     
          11           3           4   708.000000000000     
           6           1           5   890.000000000000     
           7           1           5   891.000000000000     
           8           1           5   892.000000000000     
           9           1           5   893.000000000000     
          10           1           5   894.000000000000     
          11           1           5   895.000000000000     
           6           2           5   907.000000000000     
           7           2           5   908.000000000000     
           8           2           5   909.000000000000     
           9           2           5   910.000000000000     
          10           2           5   911.000000000000     
          11           2           5   912.000000000000     
           6           3           5   924.000000000000     
           7           3           5   925.000000000000     
           8           3           5   926.000000000000     
           9           3           5   927.000000000000     
          10           3           5   928.000000000000     
          11           3           5   929.000000000000     
           6           1           6   1111.00000000000     
           7           1           6   1112.00000000000     
           8           1           6   1113.00000000000     
           9           1           6   1114.00000000000     
          10           1           6   1115.00000000000     
          11           1           6   1116.00000000000     
           6           2           6   1128.00000000000     
           7           2           6   1129.00000000000     
           8           2           6   1130.00000000000     
           9           2           6   1131.00000000000     
          10           2           6   1132.00000000000     
          11           2           6   1133.00000000000     
           6           3           6   1145.00000000000     
           7           3           6   1146.00000000000     
           8           3           6   1147.00000000000     
           9           3           6   1148.00000000000     
          10           3           6   1149.00000000000     
          11           3           6   1150.00000000000     
           6           1           7   1332.00000000000     
           7           1           7   1333.00000000000     
           8           1           7   1334.00000000000     
           9           1           7   1335.00000000000     
          10           1           7   1336.00000000000     
          11           1           7   1337.00000000000     
           6           2           7   1349.00000000000     
           7           2           7   1350.00000000000     
           8           2           7   1351.00000000000     
           9           2           7   1352.00000000000     
          10           2           7   1353.00000000000     
          11           2           7   1354.00000000000     
           6           3           7   1366.00000000000     
           7           3           7   1367.00000000000     
           8           3           7   1368.00000000000     
           9           3           7   1369.00000000000     
          10           3           7   1370.00000000000     
          11           3           7   1371.00000000000     
           6           1           8   1553.00000000000     
           7           1           8   1554.00000000000     
           8           1           8   1555.00000000000     
           9           1           8   1556.00000000000     
          10           1           8   1557.00000000000     
          11           1           8   1558.00000000000     
           6           2           8   1570.00000000000     
           7           2           8   1571.00000000000     
           8           2           8   1572.00000000000     
           9           2           8   1573.00000000000     
          10           2           8   1574.00000000000     
          11           2           8   1575.00000000000     
           6           3           8   1587.00000000000     
           7           3           8   1588.00000000000     
           8           3           8   1589.00000000000     
           9           3           8   1590.00000000000     
          10           3           8   1591.00000000000     
          11           3           8   1592.00000000000     
           6           1           9   1774.00000000000     
           7           1           9   1775.00000000000     
           8           1           9   1776.00000000000     
           9           1           9   1777.00000000000     
          10           1           9   1778.00000000000     
          11           1           9   1779.00000000000     
           6           2           9   1791.00000000000     
           7           2           9   1792.00000000000     
           8           2           9   1793.00000000000     
           9           2           9   1794.00000000000     
          10           2           9   1795.00000000000     
          11           2           9   1796.00000000000     
           6           3           9   1808.00000000000     
           7           3           9   1809.00000000000     
           8           3           9   1810.00000000000     
           9           3           9   1811.00000000000     
          10           3           9   1812.00000000000     
          11           3           9   1813.00000000000     
           6           1          10   1995.00000000000     
           7           1          10   1996.00000000000     
           8           1          10   1997.00000000000     
           9           1          10   1998.00000000000     
          10           1          10   1999.00000000000     
          11           1          10   2000.00000000000     
           6           2          10   2012.00000000000     
           7           2          10   2013.00000000000     
           8           2          10   2014.00000000000     
           9           2          10   2015.00000000000     
          10           2          10   2016.00000000000     
          11           2          10   2017.00000000000     
           6           3          10   2029.00000000000     
           7           3          10   2030.00000000000     
           8           3          10   2031.00000000000     
           9           3          10   2032.00000000000     
          10           3          10   2033.00000000000     
          11           3          10   2034.00000000000     
           6           1          11   2216.00000000000     
           7           1          11   2217.00000000000     
           8           1          11   2218.00000000000     
           9           1          11   2219.00000000000     
          10           1          11   2220.00000000000     
          11           1          11   2221.00000000000     
           6           2          11   2233.00000000000     
           7           2          11   2234.00000000000     
           8           2          11   2235.00000000000     
           9           2          11   2236.00000000000     
          10           2          11   2237.00000000000     
          11           2          11   2238.00000000000     
           6           3          11   2250.00000000000     
           7           3          11   2251.00000000000     
           8           3          11   2252.00000000000     
           9           3          11   2253.00000000000     
          10           3          11   2254.00000000000     
          11           3          11   2255.00000000000     
 ZONE F=POINT T="Rank 02" I=           6  J=           3  ,K=          11
          12           1           1   12.0000000000000     
          13           1           1   13.0000000000000     
          14           1           1   14.0000000000000     
          15           1           1   15.0000000000000     
          16           1           1   16.0000000000000     
          17           1           1   17.0000000000000     
          12           2           1   29.0000000000000     
          13           2           1   30.0000000000000     
          14           2           1   31.0000000000000     
          15           2           1   32.0000000000000     
          16           2           1   33.0000000000000     
          17           2           1   34.0000000000000     
          12           3           1   46.0000000000000     
          13           3           1   47.0000000000000     
          14           3           1   48.0000000000000     
          15           3           1   49.0000000000000     
          16           3           1   50.0000000000000     
          17           3           1   51.0000000000000     
          12           1           2   233.000000000000     
          13           1           2   234.000000000000     
          14           1           2   235.000000000000     
          15           1           2   236.000000000000     
          16           1           2   237.000000000000     
          17           1           2   238.000000000000     
          12           2           2   250.000000000000     
          13           2           2   251.000000000000     
          14           2           2   252.000000000000     
          15           2           2   253.000000000000     
          16           2           2   254.000000000000     
          17           2           2   255.000000000000     
          12           3           2   267.000000000000     
          13           3           2   268.000000000000     
          14           3           2   269.000000000000     
          15           3           2   270.000000000000     
          16           3           2   271.000000000000     
          17           3           2   272.000000000000     
          12           1           3   454.000000000000     
          13           1           3   455.000000000000     
          14           1           3   456.000000000000     
          15           1           3   457.000000000000     
          16           1           3   458.000000000000     
          17           1           3   459.000000000000     
          12           2           3   471.000000000000     
          13           2           3   472.000000000000     
          14           2           3   473.000000000000     
          15           2           3   474.000000000000     
          16           2           3   475.000000000000     
          17           2           3   476.000000000000     
          12           3           3   488.000000000000     
          13           3           3   489.000000000000     
          14           3           3   490.000000000000     
          15           3           3   491.000000000000     
          16           3           3   492.000000000000     
          17           3           3   493.000000000000     
          12           1           4   675.000000000000     
          13           1           4   676.000000000000     
          14           1           4   677.000000000000     
          15           1           4   678.000000000000     
          16           1           4   679.000000000000     
          17           1           4   680.000000000000     
          12           2           4   692.000000000000     
          13           2           4   693.000000000000     
          14           2           4   694.000000000000     
          15           2           4   695.000000000000     
          16           2           4   696.000000000000     
          17           2           4   697.000000000000     
          12           3           4   709.000000000000     
          13           3           4   710.000000000000     
          14           3           4   711.000000000000     
          15           3           4   712.000000000000     
          16           3           4   713.000000000000     
          17           3           4   714.000000000000     
          12           1           5   896.000000000000     
          13           1           5   897.000000000000     
          14           1           5   898.000000000000     
          15           1           5   899.000000000000     
          16           1           5   900.000000000000     
          17           1           5   901.000000000000     
          12           2           5   913.000000000000     
          13           2           5   914.000000000000     
          14           2           5   915.000000000000     
          15           2           5   916.000000000000     
          16           2           5   917.000000000000     
          17           2           5   918.000000000000     
          12           3           5   930.000000000000     
          13           3           5   931.000000000000     
          14           3           5   932.000000000000     
          15           3           5   933.000000000000     
          16           3           5   934.000000000000     
          17           3           5   935.000000000000     
          12           1           6   1117.00000000000     
          13           1           6   1118.00000000000     
          14           1           6   1119.00000000000     
          15           1           6   1120.00000000000     
          16           1           6   1121.00000000000     
          17           1           6   1122.00000000000     
          12           2           6   1134.00000000000     
          13           2           6   1135.00000000000     
          14           2           6   1136.00000000000     
          15           2           6   1137.00000000000     
          16           2           6   1138.00000000000     
          17           2           6   1139.00000000000     
          12           3           6   1151.00000000000     
          13           3           6   1152.00000000000     
          14           3           6   1153.00000000000     
          15           3           6   1154.00000000000     
          16           3           6   1155.00000000000     
          17           3           6   1156.00000000000     
          12           1           7   1338.00000000000     
          13           1           7   1339.00000000000     
          14           1           7   1340.00000000000     
          15           1           7   1341.00000000000     
          16           1           7   1342.00000000000     
          17           1           7   1343.00000000000     
          12           2           7   1355.00000000000     
          13           2           7   1356.00000000000     
          14           2           7   1357.00000000000     
          15           2           7   1358.00000000000     
          16           2           7   1359.00000000000     
          17           2           7   1360.00000000000     
          12           3           7   1372.00000000000     
          13           3           7   1373.00000000000     
          14           3           7   1374.00000000000     
          15           3           7   1375.00000000000     